

 Parallel Execution: Process Information
 ==============================================================================
 Rank   Node Name                              NodeID   MyNodeRank  NodeMaster
    0   dhcp-230-245.public.vu.nl                 0          0          0
    1   dhcp-230-245.public.vu.nl                 0          1         -1
    2   dhcp-230-245.public.vu.nl                 0          2         -1
    3   dhcp-230-245.public.vu.nl                 0          3         -1
 ==============================================================================


May use up to 15625MB of RAM as shared memory on node 0

    Atoms
    1 C       1.864275158052      -0.498491467433       0.217520644165
    2 C       0.993221840230      -1.736948908159       0.070930598914
    3 C       3.105509233549      -1.341355546089      -0.033770882504
    4 C       2.234463457982      -2.580103730532      -0.180533736173
    5 H       1.863926865079      -0.215413485742       1.292815796224
    6 H       0.324024829920      -1.685094718806      -0.815479956535
    7 H       0.475654014463      -2.009403274142       1.016652754734
    8 H       3.774645219124      -1.391448012544       0.852948932621
    9 H       3.622788023443      -1.068715302812      -0.979631473367
    10 H       2.414246026061      -3.326646824426       0.623783847180
    11 H       2.262260994691      -3.003130508293      -1.208557785505
    12 H       1.677796336298       0.272813635634      -0.613451730238
    End
    GUIBonds
        1 1 2 1.0
        2 3 1 1.0
        3 4 3 1.0
        4 4 2 1.0
        5 7 2 1.0
        6 5 1 1.0
        7 8 3 1.0
        8 9 3 1.0
        9 10 4 1.0
        10 11 4 1.0
        11 6 2 1.0
        12 12 1 1.0
    End
    NoPrint LOGFILE

Fragments
H t21.H
C t21.C
End

 *******************************************************************************
 *                                                                             *
 *  -------------------------------------                                      *
 *   Amsterdam Density Functional  (ADF)         branches/ArnoFoerster/myADF   *
 *  -------------------------------------                                      *
 *                                               r72312 2019-02-22             *
 *                                                                             *
 *                                                                             *
 *                              =================                              *
 *                              |               |                              *
 *                              |     A D F     |                              *
 *                              |               |                              *
 *                              =================                              *
 *                                                                             *
 *                                                                             *
 *   Online information and documentation:  https://www.scm.com/support/       *
 *   E-mail:  support@scm.com   info@scm.com                                   *
 *                                                                             *
 *   Scientific publications using ADF results must be properly referenced     *
 *   See the User Manuals (or the web site) for recommended citations          *
 *   The terms and conditions of the End User License Agreement apply to       *
 *   the use of ADF, https://www.scm.com/license-terms/                        *
 *                                                                             *
 ***********************  x86_64_darwin_gnu8 / openmpi  ************************
 
 Licensed to: Mr. Arno Foerster / VU, FEW, TC / Amsterdam / NL
 SCM User ID: u20706
  
 ADF branches/ArnoFoerster/myADF  RunTime: Mar22-2019 13:36:53  Nodes: 1  Procs: 4

 Temporary files are created in /tmp/kid_0.1440462765


Communication costs MPI_COMM_WORLD:      0.838 usec per message,   0.0058 usec per 8-byte item
Communication costs for intra-node:      0.719 usec per message,   0.0058 usec per 8-byte item

 *** (NO TITLE) ***



 ===========================
 A T T A C H E D   F I L E S
 ===========================
  



 ===============================
 M O D E L   P A R A M E T E R S
 ===============================
  
 DENSITY FUNCTIONAL POTENTIAL (scf)
    LDA:                               VWN                                      
    Gradient Corrections:              ---                                      

 SPIN  (restricted / unrestr.)
    Molecule:                          Restricted                               
    Fragments:                         Restricted                               

 OTHER ASPECTS
    Relativistic Corrections:          ---                                      

    Nuclear Charge Density Model:      Point Charge Nuclei                      
    Core Treatment:                    Frozen Orbital(s)                        

    Hyperfine or Zeeman Interaction:   ---                                      


 Fragment File(s)
 ----------------
 C:
         file : t21.C
         jobid: ADF branches/ArnoFoerster/myADF  RunTime: Mar22-2019 13:36:52  Nodes: 1  Procs: 1
         title: Carbon (DZ, 1s frozen)
 H:
         file : t21.H
         jobid: ADF branches/ArnoFoerster/myADF  RunTime: Mar22-2019 13:36:51  Nodes: 1  Procs: 1
         title: Hydrogen (DZ)



                                        ************************************
                                        *  R U N   T Y P E : SINGLE POINT  *
                                        ************************************
  



 ===============
 G E O M E T R Y  ***  3D  Molecule  ***
 ===============
  

 ATOMS
 =====                            X Y Z                    CHARGE
                                (Angstrom)             Nucl     +Core       At.Mass
                       --------------------------    ----------------       -------
    1  C               1.8643   -0.4985    0.2175      6.00      4.00       12.0000
    2  C               0.9932   -1.7369    0.0709      6.00      4.00       12.0000
    3  C               3.1055   -1.3414   -0.0338      6.00      4.00       12.0000
    4  C               2.2345   -2.5801   -0.1805      6.00      4.00       12.0000
    5  H               1.8639   -0.2154    1.2928      1.00      1.00        1.0078
    6  H               0.3240   -1.6851   -0.8155      1.00      1.00        1.0078
    7  H               0.4757   -2.0094    1.0167      1.00      1.00        1.0078
    8  H               3.7746   -1.3914    0.8529      1.00      1.00        1.0078
    9  H               3.6228   -1.0687   -0.9796      1.00      1.00        1.0078
   10  H               2.4142   -3.3266    0.6238      1.00      1.00        1.0078
   11  H               2.2623   -3.0031   -1.2086      1.00      1.00        1.0078
   12  H               1.6778    0.2728   -0.6135      1.00      1.00        1.0078


 FRAGMENTS
 =========                                     Atoms in this Fragment     Cart. coord.s (Angstrom)
                                               -------------------------------------------------------
    1  C                                                 1  C            1.8643   -0.4985    0.2175
    2  C                                                 2  C            0.9932   -1.7369    0.0709
    3  C                                                 3  C            3.1055   -1.3414   -0.0338
    4  C                                                 4  C            2.2345   -2.5801   -0.1805
    5  H                                                 5  H            1.8639   -0.2154    1.2928
    6  H                                                 6  H            0.3240   -1.6851   -0.8155
    7  H                                                 7  H            0.4757   -2.0094    1.0167
    8  H                                                 8  H            3.7746   -1.3914    0.8529
    9  H                                                 9  H            3.6228   -1.0687   -0.9796
   10  H                                                10  H            2.4142   -3.3266    0.6238
   11  H                                                11  H            2.2623   -3.0031   -1.2086
   12  H                                                12  H            1.6778    0.2728   -0.6135


 Interatomic Distance Matrix (Angstrom)
 --------------------------------------

   1)     0.000
   2)     1.521   0.000
   3)     1.521   2.152   0.000
   4)     2.151   1.521   1.521   0.000
   5)     1.112   2.137   2.138   2.811   0.000
   6)     2.202   1.112   2.910   2.203   2.996   0.000
   7)     2.202   1.112   2.910   2.203   2.285   1.867   0.000
   8)     2.202   2.910   1.112   2.203   2.286   3.844   3.360   0.000
   9)     2.202   2.909   1.112   2.202   2.998   3.360   3.844   1.867   0.000
  10)     2.910   2.203   2.203   1.112   3.230   3.022   2.376   2.377   3.022   0.000
  11)     2.910   2.202   2.203   1.112   3.767   2.377   3.022   3.022   2.376   1.867
          0.000
  12)     1.149   2.231   2.232   2.939   1.977   2.389   3.051   3.052   2.391   3.877
          3.380   0.000

 Min. Distance =    1.1119
 Max. Distance =    3.8768



 =====================================
 S Y M M E T R Y ,   E L E C T R O N S
 =====================================
  
 Symmetry: NOSYM

 Irreducible Representations, including subspecies
 -------------------------------------------------
 A


 Configuration of Valence Electrons
 ==================================
 ( determined in the SCF procedure )

 Total:   24

 Net Charge: 0 (Nuclei minus Electrons)

 Aufbau principle for MO occupations will be applied through SCF cycle no.     150
 Thereafter, the program will assign electrons to MOs that are spatially
 similar to the occupied MOs in a "reference" cycle ("KeepOrbitals").
 The reference cycle is always the PREVIOUS cycle: it will evolve with
 the SCF procedure.
1
 ***************************************************************************************************



                                      ****************************************
                                      *  B U I L D : (Fragments, Functions)  *
                                      ****************************************
  



 =======
 S F O s  ***  (Symmetrized Fragment Orbitals)  ***
 =======
  
 SFOs are linear combinations of (valence) Fragment Orbitals (FOs), such that the SFOs transform as the
 irreducible representations of the (molecular) symmetry group. Each SFO is therefore characterized by
 an irrep of the molecule and by a few (or only one) generating FOs.
 The SFOs constitute a symmetry-adapted basis for the Fock matrix. The MO eigenvector coefficients in
 this basis provide a direct interpretation of the MOs in terms of Frontier Orbital Theory.

 The SFOs are combined with auxiliary Core Functions (CFs) to ensure orthogonalization on the (frozen)
 Core Orbitals (COs). The Core-orthogonalized SFOs (CSFOs) constitute the true Fock basis.

 The FOs, and hence also the (C)SFOs are combinations of the elementary basis functions (BAS). The basis
 functions that participate in the description of the SFOs depend on the irrep. The indices of the
 involved functions are printed below for each irrep.
 (The complete list of primitive basis functions is printed in another section)

 Total nr. of (C)SFOs (summation over all irreps) :    48

 NOTE: a (C)SFO that is defined as a combination of more than one FO is usually NOT normalized.



                                       === A ===
 Nr. of SFOs :   48
 Cartesian basis functions that participate in this irrep (total number =    52) :
      1    10    19    28     2     3     4     7     5     8
      6     9    11    12    13    16    14    17    15    18
     20    21    22    25    23    26    24    27    29    30
     31    34    32    35    33    36    37    38    39    40
     41    42    43    44    45    46    47    48    49    50
     51    52

    SFO  (index         Fragment          Generating    Expansion in Fragment Orbitals
  indx  incl.CFs)   Occup   Orb.Energy   FragmentType  Coeff.   Orbital     on Fragment
 --------------------------------------------------------------------------------------
     1       5      2.000      -0.508 au  C             1.00      1 S               1
                        (     -13.814 eV)
     2       6       --         0.470 au  C             1.00      2 S               1
                        (      12.782 eV)
     3       7      0.667      -0.206 au  C             1.00      1 P:x             1
                        (      -5.600 eV)
     4       8       --         0.432 au  C             1.00      2 P:x             1
                        (      11.757 eV)
     5       9      0.667      -0.206 au  C             1.00      1 P:y             1
                        (      -5.600 eV)
     6      10       --         0.432 au  C             1.00      2 P:y             1
                        (      11.757 eV)
     7      11      0.667      -0.206 au  C             1.00      1 P:z             1
                        (      -5.600 eV)
     8      12       --         0.432 au  C             1.00      2 P:z             1
                        (      11.757 eV)
     9      13      2.000      -0.508 au  C             1.00      1 S               2
                        (     -13.814 eV)
    10      14       --         0.470 au  C             1.00      2 S               2
                        (      12.782 eV)
    11      15      0.667      -0.206 au  C             1.00      1 P:x             2
                        (      -5.600 eV)
    12      16       --         0.432 au  C             1.00      2 P:x             2
                        (      11.757 eV)
    13      17      0.667      -0.206 au  C             1.00      1 P:y             2
                        (      -5.600 eV)
    14      18       --         0.432 au  C             1.00      2 P:y             2
                        (      11.757 eV)
    15      19      0.667      -0.206 au  C             1.00      1 P:z             2
                        (      -5.600 eV)
    16      20       --         0.432 au  C             1.00      2 P:z             2
                        (      11.757 eV)
    17      21      2.000      -0.508 au  C             1.00      1 S               3
                        (     -13.814 eV)
    18      22       --         0.470 au  C             1.00      2 S               3
                        (      12.782 eV)
    19      23      0.667      -0.206 au  C             1.00      1 P:x             3
                        (      -5.600 eV)
    20      24       --         0.432 au  C             1.00      2 P:x             3
                        (      11.757 eV)
    21      25      0.667      -0.206 au  C             1.00      1 P:y             3
                        (      -5.600 eV)
    22      26       --         0.432 au  C             1.00      2 P:y             3
                        (      11.757 eV)
    23      27      0.667      -0.206 au  C             1.00      1 P:z             3
                        (      -5.600 eV)
    24      28       --         0.432 au  C             1.00      2 P:z             3
                        (      11.757 eV)
    25      29      2.000      -0.508 au  C             1.00      1 S               4
                        (     -13.814 eV)
    26      30       --         0.470 au  C             1.00      2 S               4
                        (      12.782 eV)
    27      31      0.667      -0.206 au  C             1.00      1 P:x             4
                        (      -5.600 eV)
    28      32       --         0.432 au  C             1.00      2 P:x             4
                        (      11.757 eV)
    29      33      0.667      -0.206 au  C             1.00      1 P:y             4
                        (      -5.600 eV)
    30      34       --         0.432 au  C             1.00      2 P:y             4
                        (      11.757 eV)
    31      35      0.667      -0.206 au  C             1.00      1 P:z             4
                        (      -5.600 eV)
    32      36       --         0.432 au  C             1.00      2 P:z             4
                        (      11.757 eV)
    33      37      1.000      -0.234 au  H             1.00      1 S               5
                        (      -6.379 eV)
    34      38       --         0.403 au  H             1.00      2 S               5
                        (      10.964 eV)
    35      39      1.000      -0.234 au  H             1.00      1 S               6
                        (      -6.379 eV)
    36      40       --         0.403 au  H             1.00      2 S               6
                        (      10.964 eV)
    37      41      1.000      -0.234 au  H             1.00      1 S               7
                        (      -6.379 eV)
    38      42       --         0.403 au  H             1.00      2 S               7
                        (      10.964 eV)
    39      43      1.000      -0.234 au  H             1.00      1 S               8
                        (      -6.379 eV)
    40      44       --         0.403 au  H             1.00      2 S               8
                        (      10.964 eV)
    41      45      1.000      -0.234 au  H             1.00      1 S               9
                        (      -6.379 eV)
    42      46       --         0.403 au  H             1.00      2 S               9
                        (      10.964 eV)
    43      47      1.000      -0.234 au  H             1.00      1 S              10
                        (      -6.379 eV)
    44      48       --         0.403 au  H             1.00      2 S              10
                        (      10.964 eV)
    45      49      1.000      -0.234 au  H             1.00      1 S              11
                        (      -6.379 eV)
    46      50       --         0.403 au  H             1.00      2 S              11
                        (      10.964 eV)
    47      51      1.000      -0.234 au  H             1.00      1 S              12
                        (      -6.379 eV)
    48      52       --         0.403 au  H             1.00      2 S              12
                        (      10.964 eV)



 ================================
 (Slater-type)  F U N C T I O N S  ***  (Basis and Fit)  ***
 ================================
  

 Atom Type    1  (C)
 ==============

 Valence Basis Sets:   5
 -----------------------
   1 S    5.400000
   2 S    1.240000
   2 S    1.980000
   2 P    0.960000
   2 P    2.200000

 Frozen Core Shells
 ------------------
    S:  1

 Atom Type    2  (H)
 ==============

 Valence Basis Sets:   2
 -----------------------
   1 S    0.760000
   1 S    1.280000


 BAS: List of all Elementary Cartesian Basis Functions
 =====================================================

 The numbering in the list below (to the right of the function characteristics) is referred
 to in print-outs of MO eigenvectors and Mulliken populations in the BAS representation
 (as contrasted to the SFO representation).

 Notes:
 1. The functions are characterized by a polynomial prefactor (powers of x,y,z and r) and
    an exponential decay factor alpha.
 2. Since the basis sets are specific for an atom TYPE, the individual functions occur on
    all atoms of that type.
 3. The word 'Core' in the left margin signals that it is a Core Function (CF) : not a
    degree of freedom in the valence set, but only used to ensure orthogonalization of
    the other valence basis functions on the frozen Core Orbitals.


 (power of) X  Y  Z  R     Alpha  on Atom
            ==========     =====     ==========

 C                                    1    2    3    4
                                  ---------------------------------------------------------------------------
    Core    0  0  0  0     5.400      1   10   19   28
            0  0  0  1     1.240      2   11   20   29
            0  0  0  1     1.980      3   12   21   30
            1  0  0  0     0.960      4   13   22   31
            0  1  0  0     0.960      5   14   23   32
            0  0  1  0     0.960      6   15   24   33
            1  0  0  0     2.200      7   16   25   34
            0  1  0  0     2.200      8   17   26   35
            0  0  1  0     2.200      9   18   27   36

 H                                    5    6    7    8    9   10   11   12
                                  ---------------------------------------------------------------------------
            0  0  0  0     0.760     37   39   41   43   45   47   49   51
            0  0  0  0     1.280     38   40   42   44   46   48   50   52

 Total number of charge fitting functions (nprimf)       728
 Total number of Cartesian basis functions (naos)         52
 Total number of Cartesian core functions  (ncos)          4

1
 ***************************************************************************************************



                                              ***********************
                                              *  T E C H N I C A L  *
                                              ***********************
  



 =============================================================
 P A R A L L E L I Z A T I O N  and  V E C T O R I Z A T I O N
 =============================================================
  
 Nr of parallel processes:                                4
 Maximum vector length in NumInt loops:                 128



 =====================
 S C F   U P D A T E S
 =====================
  
 Max. nr. of cycles:                               300
 Convergence criterion:                              0.0000010000
   secondary criterion:                              0.0010000000

 Mix parameter (when DIIS does not apply):           0.2000000000
 Mixed ADIIS+SDIIS will be used                  
    Max number of expansion vectors:                10
    Pure ADIIS when Max([F,P]) is above              0.1000000000
    Pure DIIS when Max([F,P]) is below               0.0010000000
 Automatic ElectronSmearing (in case of problematic SCF convergence) disabled



 =================
 P R E C I S I O N  ***  (General: NumInt, NeglectFunctionTails, ...)  ***
 =================
  

 NumInt:           Target precision:                 4.0000000000
 -------           Initial precision:                4.0000000000
                   Min. precision (optimization):    4.0000000000

 Neglect Functions:          Basis functions:        0.1000000000E-05
 ------------------          Fit functions:          0.1000000000E-05



 ===========================
 L I N E A R   S C A L I N G
 ===========================
  

 Cut-off radii density fit:                        0.1000000000E-07
 Overlap cut-off criterion AO matrix elements:     0.1000000000E-05
 Cut-offs for Coulomb potential and fitted density:0.1000000000E-07
 Cut-off criterion for Coulomb multipole terms:    0.1000000000E-07
 Progressive Convergence parameter:                 0.000000000    
1
 ***************************************************************************************************



                                            ***************************
                                            *  C O M P U T A T I O N  *
                                            ***************************
  

 Number of elements of the density matrix on this node (used, total):       374      1378



 ===========================================
 Numerical Integration : Fuzzy Cells (Becke)
 ===========================================
  
 Becke grid quality: NORMAL         
  
 Lebedev angular grid order:             min:  11 max:  23
 Nr. of radial points:                   min:  46 max:  49

 Total nr. of points:      72674
 Nr. of blocks:              568
 Block length:               128
 Nr. of dummy points:         30


 Test of Precision of the Numerical Integration Grid
 ===================================================

 Integral of the Total Core Density:                   7.99994938912218
 Relative Error:                                      -6.326E-06



 ========================
 Density Fitting (zlmFit)
 ========================
  
 ZlmFit Fit Quality: NORMAL         
  
 Max L-expansion:                        min:   4 max:   5
 Nr. of radial interpolation points:     min:  36 max:  42



 =====
 S C F  ***  ScaSCF  ***
 =====
  
 Initial density matrix is calculated as sum of fragments

 CYCLE    1
 SCF Error: norm([F,P])=      1.441611147900, max([F,P])=      0.220871997029
 orbitals (Q,E):
 ---------------
 A :3...22           ( 2.00    -0.8159)  ( 2.00    -0.6701)  ( 2.00    -0.6632)  ( 2.00    -0.6348)
                     ( 2.00    -0.5694)  ( 2.00    -0.5541)  ( 2.00    -0.5539)  ( 2.00    -0.4931)
                     ( 2.00    -0.4843)  ( 2.00    -0.4645)  ( 0.00    -0.1007)  ( 0.00    -0.0867)
                     ( 0.00    -0.0842)  ( 0.00    -0.0839)  ( 0.00    -0.0231)  ( 0.00    -0.0185)
                     ( 0.00     0.0127)  ( 0.00     0.0134)  ( 0.00     0.0181)  ( 0.00     0.0298)

 CYCLE    2
  SDIIS (wt  0.000):  0.4026  0.5974
 A-DIIS (wt  1.000):  0.0000  1.0000
  DIIS coefficients:  0.0000  1.0000
 SCF Error: norm([F,P])=      1.091575814713, max([F,P])=      0.235403727222
 orbitals (Q,E):
 ---------------
 A :3...13           ( 2.00    -0.4169)  ( 2.00    -0.3206)  ( 2.00    -0.3115)  ( 2.00    -0.2434)
                     ( 2.00    -0.2267)  ( 2.00    -0.2221)  ( 2.00    -0.1541)  ( 2.00    -0.1252)
                     ( 2.00    -0.0607)  ( 2.00    -0.0566)  ( 0.00     0.0756)

 CYCLE    3
  SDIIS (wt  0.000):  0.0433  0.5997  0.3570
 A-DIIS (wt  1.000):  0.0000  0.7012  0.2988
  DIIS coefficients:  0.0000  0.7012  0.2988
 SCF Error: norm([F,P])=      1.745221974801, max([F,P])=      0.393517274122
 orbitals (Q,E):
 ---------------
 A :3...13           ( 2.00    -0.5665)  ( 2.00    -0.4408)  ( 2.00    -0.4365)  ( 2.00    -0.3987)
                     ( 2.00    -0.3368)  ( 2.00    -0.3324)  ( 2.00    -0.3055)  ( 2.00    -0.2510)
                     ( 2.00    -0.2353)  ( 2.00    -0.2294)  ( 0.00     0.0094)

 CYCLE    4
  SDIIS (wt  0.246):  0.1855 -0.0531  0.8676
 A-DIIS (wt  0.754):  0.0524  0.0000  0.9476
  DIIS coefficients:  0.0851 -0.0131  0.9280
 SCF Error: norm([F,P])=      0.337696594485, max([F,P])=      0.075664660013
 orbitals (Q,E):
 ---------------
 A :3...13           ( 2.00    -0.6364)  ( 2.00    -0.4989)  ( 2.00    -0.4920)  ( 2.00    -0.4625)
                     ( 2.00    -0.3875)  ( 2.00    -0.3870)  ( 2.00    -0.3851)  ( 2.00    -0.3108)
                     ( 2.00    -0.3047)  ( 2.00    -0.2962)  ( 0.00    -0.0173)

 CYCLE    5
  SDIIS (wt  0.266):  0.0493 -0.0124  0.5780  0.3850
 A-DIIS (wt  0.734):  0.0000  0.0000  0.4745  0.5255
  DIIS coefficients:  0.0131 -0.0033  0.5020  0.4882
 SCF Error: norm([F,P])=      0.313528345106, max([F,P])=      0.073712815824
 orbitals (Q,E):
 ---------------
 A :3...13           ( 2.00    -0.5997)  ( 2.00    -0.4679)  ( 2.00    -0.4643)  ( 2.00    -0.4295)
                     ( 2.00    -0.3608)  ( 2.00    -0.3575)  ( 2.00    -0.3444)  ( 2.00    -0.2739)
                     ( 2.00    -0.2715)  ( 2.00    -0.2645)  ( 0.00    -0.0045)

 CYCLE    6
  SDIIS (wt  0.983): -0.0012 -0.0031  0.0996  0.1193  0.7853
 A-DIIS (wt  0.017):  0.0000  0.0000  0.0000  0.0000  1.0000
  DIIS coefficients: -0.0011 -0.0030  0.0979  0.1172  0.7891
 SCF Error: norm([F,P])=      0.010689212576, max([F,P])=      0.002728003820
 orbitals (Q,E):
 ---------------
 A :3...13           ( 2.00    -0.6006)  ( 2.00    -0.4688)  ( 2.00    -0.4647)  ( 2.00    -0.4304)
                     ( 2.00    -0.3616)  ( 2.00    -0.3583)  ( 2.00    -0.3455)  ( 2.00    -0.2745)
                     ( 2.00    -0.2727)  ( 2.00    -0.2656)  ( 0.00    -0.0050)

 CYCLE    7
  SDIIS (wt  1.000): -0.0005 -0.0009  0.0247  0.0329  0.2551  0.6887
  DIIS coefficients: -0.0005 -0.0009  0.0247  0.0329  0.2551  0.6887
 SCF Error: norm([F,P])=      0.001048922669, max([F,P])=      0.000275109035
 orbitals (Q,E):
 ---------------
 A :3...13           ( 2.00    -0.6008)  ( 2.00    -0.4689)  ( 2.00    -0.4648)  ( 2.00    -0.4305)
                     ( 2.00    -0.3617)  ( 2.00    -0.3583)  ( 2.00    -0.3456)  ( 2.00    -0.2746)
                     ( 2.00    -0.2727)  ( 2.00    -0.2657)  ( 0.00    -0.0050)

 CYCLE    8
  SDIIS (wt  1.000): -0.0003 -0.0001  0.0037  0.0080  0.0740  0.4439  0.4708
  DIIS coefficients: -0.0003 -0.0001  0.0037  0.0080  0.0740  0.4439  0.4708
 SCF Error: norm([F,P])=      0.000689087999, max([F,P])=      0.000139048879
 orbitals (Q,E):
 ---------------
 A :3...13           ( 2.00    -0.6008)  ( 2.00    -0.4690)  ( 2.00    -0.4649)  ( 2.00    -0.4305)
                     ( 2.00    -0.3617)  ( 2.00    -0.3584)  ( 2.00    -0.3457)  ( 2.00    -0.2747)
                     ( 2.00    -0.2728)  ( 2.00    -0.2658)  ( 0.00    -0.0050)

 CYCLE    9
  SDIIS (wt  1.000): -0.0000 -0.0000  0.0003  0.0008  0.0073  0.0573  0.0694  0.8649
  DIIS coefficients: -0.0000 -0.0000  0.0003  0.0008  0.0073  0.0573  0.0694  0.8649
 SCF Error: norm([F,P])=      0.000016147142, max([F,P])=      0.000003892257
 orbitals (Q,E):
 ---------------
 A :3...13           ( 2.00    -0.6008)  ( 2.00    -0.4690)  ( 2.00    -0.4649)  ( 2.00    -0.4305)
                     ( 2.00    -0.3617)  ( 2.00    -0.3584)  ( 2.00    -0.3457)  ( 2.00    -0.2747)
                     ( 2.00    -0.2728)  ( 2.00    -0.2658)  ( 0.00    -0.0050)

 CYCLE   10
  SDIIS (wt  1.000): -0.0000 -0.0000  0.0000  0.0001  0.0008  0.0091  0.0122  0.2606  0.7171
  DIIS coefficients: -0.0000 -0.0000  0.0000  0.0001  0.0008  0.0091  0.0122  0.2606  0.7171
 SCF Error: norm([F,P])=      0.000003369158, max([F,P])=      0.000000912624
 orbitals (Q,E):
 ---------------
 A :3...13           ( 2.00    -0.6008)  ( 2.00    -0.4690)  ( 2.00    -0.4649)  ( 2.00    -0.4305)
                     ( 2.00    -0.3617)  ( 2.00    -0.3584)  ( 2.00    -0.3457)  ( 2.00    -0.2747)
                     ( 2.00    -0.2728)  ( 2.00    -0.2658)  ( 0.00    -0.0050)

 SCF CONVERGED

 CYCLE   11
1
 ***************************************************************************************************



                                                *******************
                                                *  R E S U L T S  *
                                                *******************
  
 *** Using FIT density in Focky
  SDIIS (wt  1.000): -0.0000 -0.0000 -0.0000  0.0000  0.0003  0.0037  0.0052  0.1330  0.4284  0.4293
  DIIS coefficients: -0.0000 -0.0000 -0.0000  0.0000  0.0003  0.0037  0.0052  0.1330  0.4284  0.4293
 SCF Error: norm([F,P])=      0.000001862453, max([F,P])=      0.000000547836

 Orbital Energies, per Irrep and Spin:
 ======================================
                        Occup              E (au)              E (eV)       Diff (eV) with prev. cycle
                        -----      --------------------        ------       --------------------------
 A
               3        2.000     -0.60081683837380E+00       -16.349               3.10E-07
               4        2.000     -0.46896643893717E+00       -12.761               3.22E-07
               5        2.000     -0.46489257856550E+00       -12.650               3.55E-07
               6        2.000     -0.43049942543576E+00       -11.714               4.84E-07
               7        2.000     -0.36171098649954E+00        -9.843               3.09E-07
               8        2.000     -0.35840283260733E+00        -9.753               5.30E-07
               9        2.000     -0.34567210580438E+00        -9.406               2.46E-07
              10        2.000     -0.27465205625439E+00        -7.474               4.66E-07
              11        2.000     -0.27278941485361E+00        -7.423               3.97E-07
              12        2.000     -0.26576376045982E+00        -7.232               1.44E-07
              13        0.000     -0.50390906447608E-02        -0.137
              14        0.000      0.21125888878908E-01         0.575
              15        0.000      0.55064543159151E-01         1.498
              16        0.000      0.55230955438293E-01         1.503
              17        0.000      0.12052402405615E+00         3.280
              18        0.000      0.12813933603914E+00         3.487
              19        0.000      0.12886430940567E+00         3.507
              20        0.000      0.13182158048554E+00         3.587
              21        0.000      0.13540147175534E+00         3.684
              22        0.000      0.23872992744827E+00         6.496
  
 HOMO :       12 A                -0.26576376045982E+00
 LUMO :       13 A                -0.50390906447608E-02
  


 Orbital Energies of the Core Orbitals:
 ======================================
 (Note that the atoms are grouped by atomtype, see the labels, and may hence NOT be in input order)

 AtomType  Orbital  Atom                   E (au)                        E (eV)
 --------  -------  ----           --------------------        ----------------
 C           1S        1          -0.97927534139656E+01                -266.474
                       2          -0.97880514604632E+01                -266.346
                       3          -0.97880465907117E+01                -266.346
                       4          -0.97888309741045E+01                -266.368


 Fit test: (difference of exact and fit density, squared integrated, result summed over spins)
         Sum-of-Fragments:                             0.00000000000789
         Orthogonalized Fragments:                     0.00029377750208
         SCF:                                          0.00205138715414



 ==========================
 Electron Density at Nuclei
 ==========================
  
 The electron density is calculated at points on a small sphere around the center of a nucleus.
 The printed electron density is the average electron density on these points.
 The radius of the sphere is the printed approximate finite nuclear radius.

         Atom        Nuclear Radius (Angstrom)             Electron Density (a.u.)
         ----        -------------------------             -----------------------
     1)   C                 0.0000320678                              124.59011
     2)   C                 0.0000320678                              124.61837
     3)   C                 0.0000320678                              124.61823
     4)   C                 0.0000320678                              124.61858
     5)   H                 0.0000181514                                0.47024
     6)   H                 0.0000181514                                0.47075
     7)   H                 0.0000181514                                0.47153
     8)   H                 0.0000181514                                0.47121
     9)   H                 0.0000181514                                0.47098
    10)   H                 0.0000181514                                0.47083
    11)   H                 0.0000181514                                0.47102
    12)   H                 0.0000181514                                0.45008



 =======================================
 M U L L I K E N   P O P U L A T I O N S
 =======================================
  
 The survey below gives for each atom:
 a) the total charge (Z minus electrons)
 b) the net spin polarization (nr of electrons spin-A minus spin-B)
 c) for each spin the atomic electron valence density (integrated) per L-value.

 Atom              Charge    Spin density          S         P         D         F
 ----              ------    ------------       ------    ------    ------    ------
 1 C              -0.5747                       1.4705    3.1042    0.0000    0.0000
 2 C              -0.5648                       1.4492    3.1156    0.0000    0.0000
 3 C              -0.5648                       1.4493    3.1155    0.0000    0.0000
 4 C              -0.5696                       1.4524    3.1172    0.0000    0.0000
 5 H               0.2880                       0.7120    0.0000    0.0000    0.0000
 6 H               0.2850                       0.7150    0.0000    0.0000    0.0000
 7 H               0.2838                       0.7162    0.0000    0.0000    0.0000
 8 H               0.2846                       0.7154    0.0000    0.0000    0.0000
 9 H               0.2841                       0.7159    0.0000    0.0000    0.0000
 10 H              0.2839                       0.7161    0.0000    0.0000    0.0000
 11 H              0.2850                       0.7150    0.0000    0.0000    0.0000
 12 H              0.2796                       0.7204    0.0000    0.0000    0.0000

 Populations of individual BAS functions
 ----------------------------------------
 1 C            0.0004  0.7824  0.6878  0.3096  0.4014  0.6615  0.5749  0.5831  0.5735
 2 C            0.0004  0.7555  0.6934  0.3949  0.3227  0.6562  0.5905  0.5735  0.5778
 3 C            0.0004  0.7555  0.6934  0.3947  0.3234  0.6556  0.5901  0.5738  0.5779
 4 C            0.0004  0.7576  0.6944  0.3155  0.4012  0.6567  0.5737  0.5911  0.5791
 5 H           -0.1548  0.8668
 6 H           -0.1553  0.8703
 7 H           -0.1544  0.8706
 8 H           -0.1549  0.8703
 9 H           -0.1547  0.8706
 10 H          -0.1540  0.8701
 11 H          -0.1558  0.8708
 12 H          -0.1242  0.8446

 Gross Charges per Atom (Z minus electrons)
 ==========================================
            -0.5747   -0.5648   -0.5648   -0.5696    0.2880    0.2850    0.2838    0.2846    0.2841    0.2839
             0.2850    0.2796
 Net Total: -0.00000000


 Atom-Atom Population Matrix (off-diagonal elements not doubled)
 ===============================================================

     1 :     3.9959
     2 :     0.1585    3.9908
     3 :     0.1589   -0.3197    3.9901
     4 :    -0.3214    0.1680    0.1682    3.9710
     5 :     0.3667   -0.0673   -0.0672    0.0308    0.4657
     6 :    -0.0548    0.3701    0.0254   -0.0517    0.0090    0.4504
     7 :    -0.0519    0.3729    0.0287   -0.0558   -0.0157   -0.0115    0.4510
     8 :    -0.0519    0.0286    0.3729   -0.0557   -0.0156   -0.0043    0.0018    0.4502
     9 :    -0.0547    0.0254    0.3701   -0.0519    0.0090    0.0024   -0.0043   -0.0114    0.4512
    10 :     0.0263   -0.0533   -0.0535    0.3697    0.0022    0.0078   -0.0139   -0.0139    0.0078    0.4516
    11 :     0.0275   -0.0535   -0.0533    0.3697   -0.0047   -0.0147    0.0083    0.0082   -0.0147   -0.0106
             0.4513
    12 :     0.3756   -0.0559   -0.0556    0.0289   -0.0009   -0.0130    0.0065    0.0065   -0.0130   -0.0042
             0.0016    0.4439



 =================================================
 H I R S H F E L D   C H A R G E   A N A L Y S I S
 =================================================
  
 For each fragment: the (numerical) integral of rho(scf) * rho(fragment)/rho(sum-of-fragments)
 (nuclear charges are included, electrons are counted negative)

 The fragments and their ordering are defined in the early G E O M E T R Y output section.
 If you use single-atom fragments, this usually implies that all atoms of the same
 chemical type are grouped together. This may not be the order in which you listed them
 in the input file!

    1  C                        -0.0861
    2  C                        -0.0887
    3  C                        -0.0886
    4  C                        -0.0873
    5  H                         0.0436
    6  H                         0.0427
    7  H                         0.0433
    8  H                         0.0436
    9  H                         0.0425
   10  H                         0.0432
   11  H                         0.0434
   12  H                         0.0485

 Sum of these charges (accuracy NumInt/Tails) =           0.00010152



 =============================
 V O R O N O I   C H A R G E S
 =============================
  
 For each atom: the (numerical) integral of the total electronic charge density in its Voronoi cell,
 i.e. the region of space that is closer to that atom than to any other atom.
 (cf. Wigner-Seitz cells in crystals)

 Within the Voronoi cell the subintegrals over the atomic sphere and the remaining part are evaluated
 separately to give the numbers of electrons (negative charge) in these regions.
 The net total charge in the cell (including the nuclear charge) is also given.

 Values are provided for
    a) the Initial (sum-of-fragments) density
    b) the Orthogonalized-Fragments density
    c) the SCF density
    d) the Voronoi Deformation Density (VDD): the difference SCF-Initial for the complete atomic cell


  Atom                Initial                    OrthFrag                   SCF
             Sphere RestCell NetTotal   Sphere RestCell NetTotal   Sphere RestCell NetTotal      VDD
 -----       ------------------------   ------------------------   ------------------------    -----
    1 C      -2.135   -2.829    1.035   -2.275   -3.008    0.717   -2.158   -2.921    0.921   -0.114
    2 C      -2.136   -2.810    1.054   -2.278   -2.986    0.736   -2.159   -2.903    0.937   -0.116
    3 C      -2.136   -2.807    1.057   -2.278   -2.985    0.737   -2.159   -2.902    0.939   -0.118
    4 C      -2.136   -2.814    1.050   -2.278   -2.990    0.732   -2.159   -2.905    0.936   -0.114
    5 H      -0.070   -1.471   -0.541   -0.093   -1.277   -0.370   -0.103   -1.377   -0.479    0.062
    6 H      -0.071   -1.458   -0.528   -0.092   -1.275   -0.367   -0.103   -1.368   -0.471    0.058
    7 H      -0.070   -1.452   -0.522   -0.093   -1.275   -0.367   -0.103   -1.366   -0.469    0.054
    8 H      -0.071   -1.451   -0.521   -0.093   -1.271   -0.364   -0.103   -1.361   -0.465    0.057
    9 H      -0.070   -1.457   -0.528   -0.092   -1.277   -0.370   -0.103   -1.371   -0.474    0.054
   10 H      -0.070   -1.462   -0.532   -0.092   -1.276   -0.368   -0.102   -1.368   -0.471    0.062
   11 H      -0.070   -1.447   -0.517   -0.092   -1.272   -0.364   -0.103   -1.362   -0.464    0.053
   12 H      -0.069   -1.437   -0.506   -0.091   -1.261   -0.352   -0.098   -1.344   -0.442    0.064
 ---------------------------------------------------------------------------------------------------
 Total NetCharge:               0.000                      0.000                      0.000   -0.000
 (accuracy NumInt/Tails)

 Remark: the 'NetTotal' Voronoi charges often do not match the Mulliken and/or Hirshfeld charges very
 well. This is caused by the fact that chemically different atoms are not treated in accordance with
 their relative sizes. (Voronoi cells are defined by boundary planes halfway between the atoms.)
 However, the CHANGES in charge, comparing 'Initial' to 'SCF' for instance, do give a fair indication
 of the flow of charge caused by the relaxation from sum-of-fragments to self-consistency.

 Warning: the absolute accuracy of the VDD charges obtained using the Fuzzy Cells (Becke) integration
 scheme is much poorer than the one obtained with an 'equivalent' Voronoi integration grid. 



 =================================================================
 M U L T I P O L E   D E R I V E D   C H A R G E   A N A L Y S I S
 =================================================================

 This charge analysis uses the atomic multipoles (obtained from the fitted density) up to some level X,
 and reconstructs these multipoles exactly (up to level X) by distributing charges over all atoms.
 This is achieved by using Lagrange multipliers and a weight function to keep the multipoles local.

 Dummy atoms can be included (by setting INCDUM in MDC-block to 1) to obtain a fractional charge.
 This is generally useful and necessary only for small symmetrical molecules, when there are not
 enough degrees of freedom to reconstruct the multipoles.

 Since the atomic multipoles are reconstructed up to level X,
 the molecular multipoles are represented also up to level X.
 The recommended level is to reconstruct up to quadrupole : -> MDC-q charges.

 See: M. Swart, P.Th. van Duijnen, J.G. Snijders, J.Comput.Chem., (2001), p. 79-88.

 ------------------------------------------------------------- 
 Atomic electronic multipole moments from SCF equations (a.u.)
 ------------------------------------------------------------- 

   atom        charge        dip-x     dip-y     dip-z      quad-xx   quad-xy   quad-xz   quad-yy   quad-yz   quad-zz
 --------------------------------------------------------------------------------------------------------------------
    1 C      0.122603     0.023707 -0.118890  0.001099    -0.261200 -0.047479  0.024902  0.053132 -0.052675  0.208068
    2 C      0.127810     0.066251  0.013535  0.001634     0.145565  0.052160  0.012063 -0.267623 -0.041096  0.122058
    3 C      0.127871    -0.065746 -0.013467  0.007933     0.144827  0.051106  0.003794 -0.268574 -0.042115  0.123747
    4 C      0.128184    -0.013615  0.065417  0.013929    -0.276941 -0.058045  0.012080  0.150808  0.010819  0.126133
    5 H     -0.063723     0.009471 -0.052327  0.002981    -0.090288  0.006056  0.001807 -0.116782  0.043575  0.207070
    6 H     -0.065203     0.028363  0.007236 -0.006892    -0.015024 -0.009922  0.102750 -0.102235 -0.010049  0.117259
    7 H     -0.064432     0.031323  0.005576  0.005257    -0.060949  0.022417 -0.079379 -0.082432 -0.043442  0.143380
    8 H     -0.064258    -0.030077 -0.005854  0.008602    -0.012818 -0.011098  0.099780 -0.104497 -0.007952  0.117315
    9 H     -0.065272    -0.030136 -0.003881 -0.003797    -0.061503  0.020347 -0.081309 -0.082681 -0.045835  0.144184
   10 H     -0.064871    -0.005090  0.027965  0.011013    -0.092939 -0.020020  0.026020  0.013573 -0.107300  0.079366
   11 H     -0.064278    -0.005336  0.029929 -0.000098    -0.101919  0.001552 -0.003113 -0.082534  0.069020  0.184453
   12 H     -0.054431     0.004100 -0.028676 -0.029929    -0.088272 -0.019492  0.027397  0.011140 -0.115317  0.077132

 --------------------------------------- 
 Multipole derived atomic charges (a.u.)
 --------------------------------------- 

 The MDC-m charges are just the Monopole terms in the multipole expansion, while for the MDC-d charges
 also the Dipoles are reconstructed. The usually preferred charges are the MDC-q charges.
 These reconstruct the Monopoles, Dipoles and Quadrupoles (both atomic AND molecular).

        Atom    Level:     MDC-m        MDC-d        MDC-q
 ---------------------------------------------------------
     1     C            0.122603     0.122404    -6.960919
     2     C            0.127810     0.148895    -2.272371
     3     C            0.127871     0.148672    18.426577
     4     C            0.128184     0.144460   -19.734576
     5     H           -0.063723    -0.072692     1.297027
     6     H           -0.065203    -0.071429     2.193335
     7     H           -0.064432    -0.067767     2.642598
     8     H           -0.064258    -0.067555    -3.987310
     9     H           -0.065272    -0.071716    -4.428237
    10     H           -0.064871    -0.071002     5.296287
    11     H           -0.064278    -0.071296     5.819641
    12     H           -0.054431    -0.070974     1.707948

 ------------------------------------------------ 
 Average absolute deviations in atomic multipoles
 ------------------------------------------------ 

 Stated here are the average differences between the atomic multipoles
 and the reconstructed atomic multipoles (from the distributed charges).
 If these values are not zero, this means there are not enough degrees of freedom,
 to be able to reconstruct the atomic multipoles. (This usually happens only
 for small and/or highly symmetric molecules). If this is the case, one could add
 dummy atoms as extra point charges (and setting INCDUM in MDC-block to 1).

 Level:                                 MDC-d        MDC-q
 ---------------------------------------------------------
 Charge   (a.u.)                       0.0000       0.0000
 Dipole   (Debye)                      0.0000       0.0007
 Quad.    (a.u.)                       0.1134       0.0000

 --------------------------------------- 
 Represented molecular multipole moments
 --------------------------------------- 

 Given here are the Molecular multipole moments from the atomic charges, and from the Fit Density.
 Note that the atomic charges represent the latter, NOT the ones from the Exact density.

            Q (a.u.)             Dipole moment (Debye)                                          Quadrupole moment (a.u.)
                                 x         y         z              xx        xy        xz        yy        yz        zz
------------------------------------------------------------------------------------------------------------------------
MDC-m         0.0000       -0.0187    0.1002   -0.0322          0.0077    0.2125   -0.0806    0.0102    0.0782   -0.0179
MDC-d         0.0000        0.0149   -0.0864   -0.0023          0.1095   -0.1885   -0.0253    0.1764    0.0454   -0.2858
MDC-q        -0.0000        0.0160   -0.0827   -0.0017         -1.4833   -0.2410    0.2916   -1.5240   -0.6773    3.0072

Fit.Dens.     0.0000        0.0149   -0.0864   -0.0023         -1.4996   -0.2354    0.3504   -1.5049   -0.8551    3.0045



 =============
 Dipole Moment  ***  (Debye)  ***
 =============
  
 Vector   :         0.01511280     -0.08639748     -0.00391948
 Magnitude:         0.08779683

 This molecular dipole moment is calculated with analytic integration



 =========================================
 Quadrupole Moment (Buckingham convention)  ***  (a.u.)  ***
 =========================================
  
      quad-xx        quad-xy        quad-xz        quad-yy        quad-yz        quad-zz
     -1.49069450    -0.23952222     0.41946803    -1.50286849    -1.03148669     2.99356298

 This molecular quadrupole moment is calculated with analytic integration
1



 ===========================
 B O N D I N G   E N E R G Y  ***  (decomposition)  ***
 ===========================
  
*** IMPORTANT NOTE ***

The bond energy is computed as an energy difference between molecule and
fragments. In particular when the fragments are single atoms, they are usually
computed as SPHERICALLY SYMMETRIC and SPIN-RESTRICTED. Obviously, this usually
does NOT represent the true atomic groundstate.

To obtain the 'real' bond energy, (atomic) correction terms must be applied
for the true (multiplet) fragment ground state. See ref: E.J.Baerends,
V.Branchadell, M.Sodupe, Chem.Phys.Lett.265 (1997) 481

General theoretical background on the bond energy decomposition scheme used
here (Morokuma-Ziegler) can be found in the review paper:
F.M. Bickelhaupt and E.J. Baerends,
"Kohn-Sham Density Functional Theory: Predicting and Understanding Chemistry"
In: Rev. Comput. Chem.; Lipkowitz, K. B. and Boyd, D. B., Eds.;
Wiley-VCH: New York, 2000, Vol. 15, 1-86.

Symbols used in the Bickelhaupt-Baerends (BB) paper are given below to make
the direct connection to that paper, where detailed explanations can be found
on the meaning of the various terms.


                                                   hartree              eV         kcal/mol           kJ/mol
                                      --------------------     -----------       ----------      -----------

Pauli Repulsion
  Kinetic (Delta T^0):                  21.526922804125583        585.7774         13508.35         56518.93
  Delta V^Pauli Coulomb:               -11.001027205308517       -299.3532         -6903.25        -28883.19
  Delta V^Pauli LDA-XC:                 -2.846477015476327        -77.4566         -1786.19         -7473.42
                                      --------------------     -----------       ----------      -----------
  Total Pauli Repulsion:                 7.679418583340738        208.9676          4818.91         20162.31
 (Total Pauli Repulsion =
  Delta E^Pauli in BB paper)

Steric Interaction
  Pauli Repulsion (Delta E^Pauli):       7.679418583340738        208.9676          4818.91         20162.31
  Electrostatic Interaction:            -1.580756097308565        -43.0146          -991.94         -4150.27
 (Electrostatic Interaction =
  Delta V_elstat in the BB paper)
                                      --------------------     -----------       ----------      -----------
  Total Steric Interaction:              6.098662486032173        165.9530          3826.97         16012.04
 (Total Steric Interaction =
  Delta E^0 in the BB paper)

Orbital Interactions
  A:                                    -8.538220965657329       -232.3368         -5357.82        -22417.10
                                      --------------------     -----------       ----------      -----------
  Total Orbital Interactions:           -8.538220965657329       -232.3368         -5357.82        -22417.10

Alternative Decomposition Orb.Int.
  Kinetic:                             -19.247146861219825       -523.7415        -12077.77        -50533.38
  Coulomb:                              10.178534226689438        276.9720          6387.13         26723.74
  XC:                                    0.530391668873058         14.4327           332.83          1392.54
                                      --------------------     -----------       ----------      -----------
  Total Orbital Interactions:           -8.538220965657329       -232.3368         -5357.82        -22417.10

  Residu (E=Steric+OrbInt+Res):         -0.000193716116090         -0.0053            -0.12            -0.51

Total Bonding Energy:                   -2.439752195741246        -66.3890         -1530.97         -6405.57


Summary of Bonding Energy (energy terms are taken from the energy decomposition above)
======================================================================================

  Electrostatic Energy:                 -1.580756097308565        -43.0146          -991.94         -4150.27
  Kinetic Energy:                        2.279775942905758         62.0359          1430.58          5985.55
  Coulomb (Steric+OrbInt) Energy:       -0.822686694735169        -22.3864          -516.24         -2159.96
  XC Energy:                            -2.316085346603269        -63.0239         -1453.37         -6080.88
                                      --------------------     -----------       ----------      -----------
  Total Bonding Energy:                 -2.439752195741246        -66.3890         -1530.97         -6405.57


Correction terms (incorporated in energies above; only for test purposes):

1. Indication of fit-quality: 1st-order fit-correction used in the energy (hartree):  -0.0002601944
2. Electrostatic (Fit correction):   0.0000000000



 =========================================
 F R A G M E N T   E N E R G Y   T E R M S  ***  (summed over all fragments)  ***
 =========================================
  

The energy terms below are (parts of) the Total Energy of the fragments from which the molecule
 is built.

Exchange and Correlation
  Exchange LDA:                        -18.953029555335924       -515.7382        -11893.21        -49761.17
  Exchange GGA:                          0.000000000000000          0.0000             0.00             0.00
  Correlation LDA:                      -1.801910759441118        -49.0325         -1130.72         -4730.92
  Correlation GGA:                       0.000000000000000          0.0000             0.00             0.00
                                      --------------------     -----------       ----------      -----------
  Total XC:                            -20.754940314777041       -564.7707        -13023.92        -54492.09
1



 =======================================================
 S F O   P O P U L A T I O N S ,   M O   A N A L Y S I S
 =======================================================
  
 A Mulliken population analysis is performed on (input-)selected MOs. All populations refer to SFOs.
 BAS populations may have been printed directly after the SCF part.


                                       === A ===


 SFO contributions (%) per orbital
 (multiplication by the orbital occupation yields the SFO Gross Populations)

 Orb.:        3      4      5      6      7      8      9     10     11     12     13     14     15     16
 occup:     2.00   2.00   2.00   2.00   2.00   2.00   2.00   2.00   2.00   2.00   0.00   0.00   0.00   0.00
 CF+SFO     ----   ----   ----   ----   ----   ----   ----   ----   ----   ----   ----   ----   ----   ----
 ------
      5:   36.96   1.83  11.65   3.06   0.02   0.00   0.00  -0.03   0.00  -0.15   1.84   0.07   1.28   9.58
      6:   -0.40  -0.19  -0.89   0.45   0.00  -0.00   0.00  -0.03  -0.00  -0.30  -6.60  -0.02  -1.75 -13.21
      7:   -0.02   0.06   0.16   0.49   0.25   0.01  23.82   0.29  12.42   0.55   0.12   0.02  14.57   1.76
      8:   -0.01   0.00  -0.02   0.01  -0.00   0.00   0.15   0.00   0.82  -0.00  -0.02  -0.06   3.28   0.09
      9:   -0.48  -0.02   2.79  15.11   1.40   0.00   0.85   4.40   0.42  21.46   4.15   0.16   0.31  -0.00
     10:   -0.72  -0.01  -0.45   0.36   0.00   0.00   0.01  -0.00   0.03  -0.02  -0.78  -0.49  -0.15   1.05
     11:    0.13  19.66   2.44   0.36  28.35   0.00   0.07   6.54   0.04   4.44   0.31   1.37   0.06  -0.03
     12:   -0.02  -0.36  -0.01   0.04  -0.02  -0.00   0.00   0.05   0.00   0.04  -0.08  -6.12   0.03   0.00
     13:    0.04   2.74  11.74   0.42   0.00   0.00  -0.00   0.00   0.18   0.00   0.84   0.00   9.12   1.24
     14:    0.00  -0.16  -0.69   0.25  -0.00   0.00  -0.00   0.00  -0.39  -0.00  -6.00   0.00 -13.56  -1.96
     15:    0.19   1.76   4.59  13.41   0.01   0.20   0.71   0.25  25.22   0.17   3.25  -0.00  -0.23   0.25
     17:    6.79   0.30   0.82   0.26  -0.00   0.74  23.54   2.36   0.85  10.01   0.11  -0.04   1.78  14.44
     18:   -1.78   0.00  -0.05   0.01   0.00  -0.00   0.13   0.10  -0.00   0.63  -0.03  -0.14   0.02   3.19
     19:    0.33  15.83   3.91   0.05   0.02  30.03   0.66   8.58   0.07   2.59   0.01   1.48   0.05   0.38
     20:   -0.08  -0.33  -0.09  -0.00  -0.00  -0.01   0.00   0.05   0.00   0.08  -0.01  -5.72   0.04   0.13
     21:    0.03   2.74  11.73   0.42   0.00   0.00  -0.00   0.00   0.17   0.00   0.83   0.00   9.15   1.18
     22:   -0.00  -0.16  -0.69   0.25  -0.00   0.00  -0.00   0.00  -0.39  -0.00  -5.99   0.00 -13.88  -1.68
     23:    0.20   0.42   6.25  12.99   0.01   0.18   0.79   0.17  25.19   0.31   3.30   0.00  -0.26   0.23
     25:    6.78   0.85  -0.00   0.71   0.01   0.74  23.49   2.43   0.88   9.79   0.12  -0.04   1.66  14.61
     26:   -1.77  -0.04   0.00   0.02   0.00  -0.00   0.13   0.11  -0.00   0.63  -0.02  -0.14   0.03   3.16
     27:    0.33  16.63   3.03   0.02   0.08  30.02   0.67   8.60   0.07   2.59   0.00   1.47   0.06   0.36
     28:   -0.08  -0.38  -0.04   0.00  -0.00  -0.01   0.00   0.05  -0.00   0.08   0.00  -5.72   0.03   0.13
     29:   39.43   2.33   9.13   2.02  -0.00   0.00  -0.00   0.02   0.00   0.27   0.84  -0.00   1.23   9.38
     30:   -0.39  -0.18  -0.76   0.44  -0.00   0.00  -0.00  -0.04  -0.00  -0.37  -6.02  -0.00  -1.89 -14.24
     31:   -0.01   0.22   0.01   0.55   0.20   0.01  23.90   0.30  12.65   0.52   0.10   0.01  14.88   1.77
     32:   -0.01  -0.01  -0.00   0.01  -0.00  -0.00   0.13   0.00   0.78  -0.00  -0.02  -0.04   3.33   0.07
     33:    0.10   2.32   1.42  17.32   0.65   0.00   0.85   4.27   0.43  19.36   2.83   0.07   0.30  -0.26
     35:    0.01  14.14   4.75   0.71  30.91   0.00   0.07   8.32   0.04   3.08   0.09   1.30   0.02  -0.04
     36:   -0.03  -0.29  -0.17   0.01  -0.01  -0.00   0.00   0.08   0.00   0.01  -0.01  -5.48   0.03  -0.07
     37:    3.74   4.12   0.53   4.68   7.20   0.00   0.00   2.31   0.00   8.59  11.87  12.73   1.19   9.00
     38:   -0.08   1.13   0.19  -0.25   2.27   0.00   0.00   0.69   0.00   0.62   4.20   1.68   0.62   4.76
     39:    0.01   4.23   1.57   3.10   0.01   7.39   0.00   5.55   4.71   0.67   9.04  12.99   9.19   1.70
     40:   -0.00   0.90   0.26  -0.27   0.00   2.16   0.00   1.05   0.32   0.09   3.80   1.40   5.33   0.99
     41:    0.00   0.07   5.99   2.92   0.00   7.36   0.01   5.32   4.94   0.56   9.55  13.13   9.92   1.12
     42:   -0.00  -0.01   1.23  -0.28   0.00   2.14   0.00   1.00   0.33   0.11   3.99   1.44   5.72   0.68
     43:    0.01   0.07   5.97   2.92   0.01   7.36   0.00   5.41   4.81   0.59   9.51  13.10   9.58   1.48
     44:    0.00  -0.01   1.22  -0.28   0.00   2.14   0.00   1.01   0.32   0.12   3.97   1.43   5.60   0.82
     45:    0.00   4.24   1.57   3.11   0.03   7.37   0.00   5.46   4.84   0.63   9.07  13.02  10.02   0.88
     46:    0.00   0.90   0.26  -0.27   0.01   2.16   0.00   1.03   0.33   0.09   3.80   1.41   5.82   0.52
     47:    4.23   3.74   0.67   4.69   7.00   0.00   0.00   9.29   0.00   1.72   9.28  12.95   1.18   8.95
     48:   -0.18   0.90   0.20  -0.21   2.12   0.00   0.00   1.46   0.00   0.03   3.90   1.47   0.72   5.42
     49:    4.32   0.12   4.11   4.77   7.70   0.00   0.00   2.93   0.00   7.32   8.74  12.87   1.53  11.65
     50:   -0.19  -0.05   1.19  -0.21   2.20   0.00   0.00   0.71   0.00   0.68   3.69   1.20   0.84   6.39
     51:    3.67   0.27   4.43   4.80   7.53   0.00   0.00   8.69   0.00   2.41  10.44  15.62   1.20   9.01
     52:   -0.22  -0.03   1.04  -0.25   2.03   0.00   0.00   1.22   0.00   0.02   3.70   1.89   0.63   4.73


 Summation over all MOs, multiplied by occupation: Total SFO Gross Populations in this Irrep
 ===========================================================================================

     0.00    0.00    0.00    0.00    1.51   -0.04    0.90   -0.02    1.02   -0.03    1.24   -0.01
     1.49   -0.04    1.02   -0.03    0.92   -0.02    1.24   -0.01    1.49   -0.04    1.02   -0.03
     0.92   -0.02    1.24   -0.01    1.49   -0.04    0.91   -0.02    1.02   -0.03    1.24   -0.01
     0.64    0.07    0.64    0.07    0.64    0.07    0.64    0.07    0.64    0.07    0.64    0.07
     0.64    0.07    0.66    0.06



 List of all MOs, ordered by energy, with the most significant SFO gross populations
 ===================================================================================

 Each percentage contribution in the table below corresponds to the indicated SFO.
 In general, a SFO may be a linear combination of several Fragment Orbitals on the same,
 or on symmetry-related Fragments. Only the first 'member' of such a combination is
 specified here. A full definition of all SFOs is given in an earlier part of the output.
 The numbering of the SFOs in this table does NOT include the Core Orbitals, and starts
 from one for each symmetry representation, as in the SFO definition list earlier.

       E(eV)  Occ       MO           %     SFO (first member)   E(eV)  Occ   Fragment
 -------------------------------------------------------------------------------------

     -21.666  2.00     1 A         21.92%     1 S             -13.814  2.00     1 C
                                   21.22%     1 S             -13.814  2.00     2 C
                                   21.22%     1 S             -13.814  2.00     3 C
                                   21.17%     1 S             -13.814  2.00     4 C
                                    4.66%     1 P:y            -5.600  0.67     1 C
                                    4.37%     1 P:x            -5.600  0.67     3 C
                                    4.37%     1 P:x            -5.600  0.67     2 C
                                    4.21%     1 P:y            -5.600  0.67     4 C
     -16.389  2.00     2 A         38.01%     1 S             -13.814  2.00     3 C
                                   37.99%     1 S             -13.814  2.00     2 C
                                    6.94%     1 P:x            -5.600  0.67     1 C
                                    6.91%     1 P:x            -5.600  0.67     4 C
                                    4.09%     1 S              -6.379  1.00     9 H
                                    4.07%     1 S              -6.379  1.00     6 H
                                    4.07%     1 S              -6.379  1.00     7 H
                                    4.05%     1 S              -6.379  1.00     8 H
                                   -1.85%     2 P:x            11.757  0.00     1 C
                                   -1.82%     2 P:x            11.757  0.00     4 C
     -16.349  2.00     3 A         39.43%     1 S             -13.814  2.00     4 C
                                   36.96%     1 S             -13.814  2.00     1 C
                                    6.79%     1 P:y            -5.600  0.67     2 C
                                    6.78%     1 P:y            -5.600  0.67     3 C
                                    4.32%     1 S              -6.379  1.00    11 H
                                    4.23%     1 S              -6.379  1.00    10 H
                                    3.74%     1 S              -6.379  1.00     5 H
                                    3.67%     1 S              -6.379  1.00    12 H
                                   -1.78%     2 P:y            11.757  0.00     2 C
                                   -1.77%     2 P:y            11.757  0.00     3 C
     -12.761  2.00     4 A         19.66%     1 P:z            -5.600  0.67     1 C
                                   16.63%     1 P:z            -5.600  0.67     3 C
                                   15.83%     1 P:z            -5.600  0.67     2 C
                                   14.14%     1 P:z            -5.600  0.67     4 C
                                    4.24%     1 S              -6.379  1.00     9 H
                                    4.23%     1 S              -6.379  1.00     6 H
                                    4.12%     1 S              -6.379  1.00     5 H
                                    3.74%     1 S              -6.379  1.00    10 H
                                    2.74%     1 S             -13.814  2.00     2 C
                                    2.74%     1 S             -13.814  2.00     3 C
                                    2.33%     1 S             -13.814  2.00     4 C
                                    2.32%     1 P:y            -5.600  0.67     4 C
                                    1.83%     1 S             -13.814  2.00     1 C
                                    1.76%     1 P:x            -5.600  0.67     2 C
                                    1.13%     2 S              10.964  0.00     5 H
     -12.650  2.00     5 A         11.74%     1 S             -13.814  2.00     2 C
                                   11.73%     1 S             -13.814  2.00     3 C
                                   11.65%     1 S             -13.814  2.00     1 C
                                    9.13%     1 S             -13.814  2.00     4 C
                                    6.25%     1 P:x            -5.600  0.67     3 C
                                    5.99%     1 S              -6.379  1.00     7 H
                                    5.97%     1 S              -6.379  1.00     8 H
                                    4.75%     1 P:z            -5.600  0.67     4 C
                                    4.59%     1 P:x            -5.600  0.67     2 C
                                    4.43%     1 S              -6.379  1.00    12 H
                                    4.11%     1 S              -6.379  1.00    11 H
                                    3.91%     1 P:z            -5.600  0.67     2 C
                                    3.03%     1 P:z            -5.600  0.67     3 C
                                    2.79%     1 P:y            -5.600  0.67     1 C
                                    2.44%     1 P:z            -5.600  0.67     1 C
                                    1.57%     1 S              -6.379  1.00     9 H
                                    1.57%     1 S              -6.379  1.00     6 H
                                    1.42%     1 P:y            -5.600  0.67     4 C
                                    1.23%     2 S              10.964  0.00     7 H
                                    1.22%     2 S              10.964  0.00     8 H
                                    1.19%     2 S              10.964  0.00    11 H
                                    1.04%     2 S              10.964  0.00    12 H
     -11.714  2.00     6 A         17.32%     1 P:y            -5.600  0.67     4 C
                                   15.11%     1 P:y            -5.600  0.67     1 C
                                   13.41%     1 P:x            -5.600  0.67     2 C
                                   12.99%     1 P:x            -5.600  0.67     3 C
                                    4.80%     1 S              -6.379  1.00    12 H
                                    4.77%     1 S              -6.379  1.00    11 H
                                    4.69%     1 S              -6.379  1.00    10 H
                                    4.68%     1 S              -6.379  1.00     5 H
                                    3.11%     1 S              -6.379  1.00     9 H
                                    3.10%     1 S              -6.379  1.00     6 H
                                    3.06%     1 S             -13.814  2.00     1 C
                                    2.92%     1 S              -6.379  1.00     7 H
                                    2.92%     1 S              -6.379  1.00     8 H
                                    2.02%     1 S             -13.814  2.00     4 C
      -9.843  2.00     7 A         30.91%     1 P:z            -5.600  0.67     4 C
                                   28.35%     1 P:z            -5.600  0.67     1 C
                                    7.70%     1 S              -6.379  1.00    11 H
                                    7.53%     1 S              -6.379  1.00    12 H
                                    7.20%     1 S              -6.379  1.00     5 H
                                    7.00%     1 S              -6.379  1.00    10 H
                                    2.27%     2 S              10.964  0.00     5 H
                                    2.20%     2 S              10.964  0.00    11 H
                                    2.12%     2 S              10.964  0.00    10 H
                                    2.03%     2 S              10.964  0.00    12 H
                                    1.40%     1 P:y            -5.600  0.67     1 C
      -9.753  2.00     8 A         30.03%     1 P:z            -5.600  0.67     2 C
                                   30.02%     1 P:z            -5.600  0.67     3 C
                                    7.39%     1 S              -6.379  1.00     6 H
                                    7.37%     1 S              -6.379  1.00     9 H
                                    7.36%     1 S              -6.379  1.00     8 H
                                    7.36%     1 S              -6.379  1.00     7 H
                                    2.16%     2 S              10.964  0.00     6 H
                                    2.16%     2 S              10.964  0.00     9 H
                                    2.14%     2 S              10.964  0.00     8 H
                                    2.14%     2 S              10.964  0.00     7 H
      -9.406  2.00     9 A         23.90%     1 P:x            -5.600  0.67     4 C
                                   23.82%     1 P:x            -5.600  0.67     1 C
                                   23.54%     1 P:y            -5.600  0.67     2 C
                                   23.49%     1 P:y            -5.600  0.67     3 C
      -7.474  2.00    10 A          9.29%     1 S              -6.379  1.00    10 H
                                    8.69%     1 S              -6.379  1.00    12 H
                                    8.60%     1 P:z            -5.600  0.67     3 C
                                    8.58%     1 P:z            -5.600  0.67     2 C
                                    8.32%     1 P:z            -5.600  0.67     4 C
                                    6.54%     1 P:z            -5.600  0.67     1 C
                                    5.55%     1 S              -6.379  1.00     6 H
                                    5.46%     1 S              -6.379  1.00     9 H
                                    5.41%     1 S              -6.379  1.00     8 H
                                    5.32%     1 S              -6.379  1.00     7 H
                                    4.40%     1 P:y            -5.600  0.67     1 C
                                    4.27%     1 P:y            -5.600  0.67     4 C
                                    2.93%     1 S              -6.379  1.00    11 H
                                    2.43%     1 P:y            -5.600  0.67     3 C
                                    2.36%     1 P:y            -5.600  0.67     2 C
                                    2.31%     1 S              -6.379  1.00     5 H
                                    1.46%     2 S              10.964  0.00    10 H
                                    1.22%     2 S              10.964  0.00    12 H
                                    1.05%     2 S              10.964  0.00     6 H
                                    1.03%     2 S              10.964  0.00     9 H
                                    1.01%     2 S              10.964  0.00     8 H
      -7.423  2.00    11 A         25.22%     1 P:x            -5.600  0.67     2 C
                                   25.19%     1 P:x            -5.600  0.67     3 C
                                   12.65%     1 P:x            -5.600  0.67     4 C
                                   12.42%     1 P:x            -5.600  0.67     1 C
                                    4.94%     1 S              -6.379  1.00     7 H
                                    4.84%     1 S              -6.379  1.00     9 H
                                    4.81%     1 S              -6.379  1.00     8 H
                                    4.71%     1 S              -6.379  1.00     6 H
      -7.232  2.00    12 A         21.46%     1 P:y            -5.600  0.67     1 C
                                   19.36%     1 P:y            -5.600  0.67     4 C
                                   10.01%     1 P:y            -5.600  0.67     2 C
                                    9.79%     1 P:y            -5.600  0.67     3 C
                                    8.59%     1 S              -6.379  1.00     5 H
                                    7.32%     1 S              -6.379  1.00    11 H
                                    4.44%     1 P:z            -5.600  0.67     1 C
                                    3.08%     1 P:z            -5.600  0.67     4 C
                                    2.59%     1 P:z            -5.600  0.67     3 C
                                    2.59%     1 P:z            -5.600  0.67     2 C
                                    2.41%     1 S              -6.379  1.00    12 H
                                    1.72%     1 S              -6.379  1.00    10 H
      -0.137  0.00    13 A         11.87%     1 S              -6.379  1.00     5 H
                                   10.44%     1 S              -6.379  1.00    12 H
                                    9.55%     1 S              -6.379  1.00     7 H
                                    9.51%     1 S              -6.379  1.00     8 H
                                    9.28%     1 S              -6.379  1.00    10 H
                                    9.07%     1 S              -6.379  1.00     9 H
                                    9.04%     1 S              -6.379  1.00     6 H
                                    8.74%     1 S              -6.379  1.00    11 H
                                   -6.60%     2 S              12.782  0.00     1 C
                                   -6.02%     2 S              12.782  0.00     4 C
                                   -6.00%     2 S              12.782  0.00     2 C
                                   -5.99%     2 S              12.782  0.00     3 C
                                    4.20%     2 S              10.964  0.00     5 H
                                    4.15%     1 P:y            -5.600  0.67     1 C
                                    3.99%     2 S              10.964  0.00     7 H
                                    3.97%     2 S              10.964  0.00     8 H
                                    3.90%     2 S              10.964  0.00    10 H
                                    3.80%     2 S              10.964  0.00     9 H
                                    3.80%     2 S              10.964  0.00     6 H
                                    3.70%     2 S              10.964  0.00    12 H
                                    3.69%     2 S              10.964  0.00    11 H
                                    3.30%     1 P:x            -5.600  0.67     3 C
                                    3.25%     1 P:x            -5.600  0.67     2 C
                                    2.83%     1 P:y            -5.600  0.67     4 C
                                    1.84%     1 S             -13.814  2.00     1 C
       0.575  0.00    14 A         15.62%     1 S              -6.379  1.00    12 H
                                   13.13%     1 S              -6.379  1.00     7 H
                                   13.10%     1 S              -6.379  1.00     8 H
                                   13.02%     1 S              -6.379  1.00     9 H
                                   12.99%     1 S              -6.379  1.00     6 H
                                   12.95%     1 S              -6.379  1.00    10 H
                                   12.87%     1 S              -6.379  1.00    11 H
                                   12.73%     1 S              -6.379  1.00     5 H
                                   -6.12%     2 P:z            11.757  0.00     1 C
                                   -5.72%     2 P:z            11.757  0.00     2 C
                                   -5.72%     2 P:z            11.757  0.00     3 C
                                   -5.48%     2 P:z            11.757  0.00     4 C
                                    1.89%     2 S              10.964  0.00    12 H
                                    1.68%     2 S              10.964  0.00     5 H
                                    1.48%     1 P:z            -5.600  0.67     2 C
                                    1.47%     1 P:z            -5.600  0.67     3 C
                                    1.47%     2 S              10.964  0.00    10 H
                                    1.44%     2 S              10.964  0.00     7 H
                                    1.43%     2 S              10.964  0.00     8 H
                                    1.41%     2 S              10.964  0.00     9 H
                                    1.40%     2 S              10.964  0.00     6 H
                                    1.37%     1 P:z            -5.600  0.67     1 C
                                    1.30%     1 P:z            -5.600  0.67     4 C
                                    1.20%     2 S              10.964  0.00    11 H
       1.498  0.00    15 A         14.88%     1 P:x            -5.600  0.67     4 C
                                   14.57%     1 P:x            -5.600  0.67     1 C
                                  -13.88%     2 S              12.782  0.00     3 C
                                  -13.56%     2 S              12.782  0.00     2 C
                                   10.02%     1 S              -6.379  1.00     9 H
                                    9.92%     1 S              -6.379  1.00     7 H
                                    9.58%     1 S              -6.379  1.00     8 H
                                    9.19%     1 S              -6.379  1.00     6 H
                                    9.15%     1 S             -13.814  2.00     3 C
                                    9.12%     1 S             -13.814  2.00     2 C
                                    5.82%     2 S              10.964  0.00     9 H
                                    5.72%     2 S              10.964  0.00     7 H
                                    5.60%     2 S              10.964  0.00     8 H
                                    5.33%     2 S              10.964  0.00     6 H
                                    3.33%     2 P:x            11.757  0.00     4 C
                                    3.28%     2 P:x            11.757  0.00     1 C
                                   -1.89%     2 S              12.782  0.00     4 C
                                    1.78%     1 P:y            -5.600  0.67     2 C
                                   -1.75%     2 S              12.782  0.00     1 C
                                    1.66%     1 P:y            -5.600  0.67     3 C
                                    1.53%     1 S              -6.379  1.00    11 H
                                    1.28%     1 S             -13.814  2.00     1 C
                                    1.23%     1 S             -13.814  2.00     4 C
                                    1.20%     1 S              -6.379  1.00    12 H
                                    1.19%     1 S              -6.379  1.00     5 H
                                    1.18%     1 S              -6.379  1.00    10 H
       1.503  0.00    16 A         14.61%     1 P:y            -5.600  0.67     3 C
                                   14.44%     1 P:y            -5.600  0.67     2 C
                                  -14.24%     2 S              12.782  0.00     4 C
                                  -13.21%     2 S              12.782  0.00     1 C
                                   11.65%     1 S              -6.379  1.00    11 H
                                    9.58%     1 S             -13.814  2.00     1 C
                                    9.38%     1 S             -13.814  2.00     4 C
                                    9.01%     1 S              -6.379  1.00    12 H
                                    9.00%     1 S              -6.379  1.00     5 H
                                    8.95%     1 S              -6.379  1.00    10 H
                                    6.39%     2 S              10.964  0.00    11 H
                                    5.42%     2 S              10.964  0.00    10 H
                                    4.76%     2 S              10.964  0.00     5 H
                                    4.73%     2 S              10.964  0.00    12 H
                                    3.19%     2 P:y            11.757  0.00     2 C
                                    3.16%     2 P:y            11.757  0.00     3 C
                                   -1.96%     2 S              12.782  0.00     2 C
                                    1.77%     1 P:x            -5.600  0.67     4 C
                                    1.76%     1 P:x            -5.600  0.67     1 C
                                    1.70%     1 S              -6.379  1.00     6 H
                                   -1.68%     2 S              12.782  0.00     3 C
                                    1.48%     1 S              -6.379  1.00     8 H
                                    1.24%     1 S             -13.814  2.00     2 C
                                    1.18%     1 S             -13.814  2.00     3 C
                                    1.12%     1 S              -6.379  1.00     7 H
                                    1.05%     2 P:y            11.757  0.00     1 C
       3.280  0.00    17 A         29.11%     1 P:y            -5.600  0.67     1 C
                                   22.64%     1 P:y            -5.600  0.67     4 C
                                   21.05%     1 S              -6.379  1.00    12 H
                                   13.96%     1 P:y            -5.600  0.67     2 C
                                   13.36%     1 P:y            -5.600  0.67     3 C
                                  -11.33%     2 P:y            11.757  0.00     1 C
                                   11.30%     1 S              -6.379  1.00    11 H
                                   -6.83%     2 P:y            11.757  0.00     4 C
                                    5.82%     1 S              -6.379  1.00     5 H
                                    3.11%     1 P:z            -5.600  0.67     4 C
                                   -2.69%     2 S              10.964  0.00    12 H
                                   -2.01%     2 P:z            11.757  0.00     4 C
                                   -1.93%     2 S              10.964  0.00     5 H
                                   -1.92%     2 P:y            11.757  0.00     2 C
                                    1.86%     1 S             -13.814  2.00     4 C
                                    1.47%     1 S              -6.379  1.00    10 H
                                   -1.32%     2 P:y            11.757  0.00     3 C
       3.487  0.00    18 A         42.92%     1 S              -6.379  1.00    10 H
                                   19.86%     1 S              -6.379  1.00    12 H
                                   11.82%     1 P:z            -5.600  0.67     1 C
                                  -10.69%     2 P:z            11.757  0.00     1 C
                                    9.92%     1 S              -6.379  1.00     5 H
                                   -7.84%     2 P:z            11.757  0.00     4 C
                                    7.40%     1 P:z            -5.600  0.67     4 C
                                   -4.52%     2 P:y            11.757  0.00     4 C
                                    4.49%     1 P:y            -5.600  0.67     4 C
                                    4.01%     2 S              10.964  0.00    10 H
                                    3.84%     2 S              10.964  0.00    12 H
                                    3.50%     1 S              -6.379  1.00     9 H
                                    3.18%     1 S             -13.814  2.00     1 C
                                    2.83%     1 S              -6.379  1.00     6 H
                                    2.31%     1 S              -6.379  1.00     7 H
                                    2.22%     1 S             -13.814  2.00     2 C
                                    2.17%     1 S             -13.814  2.00     3 C
                                   -2.14%     2 S              12.782  0.00     1 C
                                    2.09%     1 S              -6.379  1.00     8 H
                                   -1.96%     2 S              12.782  0.00     2 C
                                   -1.93%     2 S              12.782  0.00     3 C
                                    1.74%     1 S             -13.814  2.00     4 C
                                   -1.73%     2 S              12.782  0.00     4 C
                                    1.47%     1 P:y            -5.600  0.67     3 C
                                    1.32%     1 P:y            -5.600  0.67     2 C
                                    1.22%     1 S              -6.379  1.00    11 H
       3.507  0.00    19 A         29.05%     1 P:x            -5.600  0.67     3 C
                                   28.99%     1 P:x            -5.600  0.67     2 C
                                   16.20%     1 P:x            -5.600  0.67     4 C
                                   15.62%     1 P:x            -5.600  0.67     1 C
                                  -11.35%     2 P:x            11.757  0.00     2 C
                                  -11.33%     2 P:x            11.757  0.00     3 C
                                   10.65%     1 S              -6.379  1.00     7 H
                                   10.56%     1 S              -6.379  1.00     8 H
                                    8.73%     1 S              -6.379  1.00     6 H
                                    8.57%     1 S              -6.379  1.00     9 H
                                   -2.43%     2 P:x            11.757  0.00     4 C
                                   -2.29%     2 P:x            11.757  0.00     1 C
                                   -1.15%     2 S              10.964  0.00     8 H
                                   -1.12%     2 S              10.964  0.00     9 H
                                   -1.12%     2 S              10.964  0.00     7 H
                                   -1.09%     2 S              10.964  0.00     6 H
                                    1.02%     1 P:y            -5.600  0.67     3 C
       3.587  0.00    20 A         24.12%     1 S              -6.379  1.00     6 H
                                   23.89%     1 S              -6.379  1.00     9 H
                                   21.85%     1 S              -6.379  1.00     8 H
                                   21.67%     1 S              -6.379  1.00     7 H
                                  -15.35%     2 P:z            11.757  0.00     3 C
                                  -15.23%     2 P:z            11.757  0.00     2 C
                                   14.47%     1 P:z            -5.600  0.67     3 C
                                   14.29%     1 P:z            -5.600  0.67     2 C
                                    2.61%     2 S              10.964  0.00     6 H
                                    2.58%     2 S              10.964  0.00     9 H
                                    2.57%     2 S              10.964  0.00     8 H
                                    2.52%     2 S              10.964  0.00     7 H
       3.684  0.00    21 A         29.29%     1 S              -6.379  1.00    11 H
                                   26.66%     1 S              -6.379  1.00     5 H
                                    7.92%     1 S              -6.379  1.00     6 H
                                    7.68%     1 S              -6.379  1.00     9 H
                                    7.37%     1 S              -6.379  1.00     8 H
                                    7.05%     1 S              -6.379  1.00     7 H
                                    6.21%     1 S             -13.814  2.00     1 C
                                    6.05%     1 S             -13.814  2.00     2 C
                                    6.02%     1 S             -13.814  2.00     3 C
                                   -5.61%     2 S              12.782  0.00     1 C
                                   -5.55%     2 P:z            11.757  0.00     4 C
                                   -5.51%     2 P:z            11.757  0.00     1 C
                                   -5.23%     2 S              12.782  0.00     2 C
                                    5.22%     1 P:z            -5.600  0.67     4 C
                                   -5.21%     2 S              12.782  0.00     3 C
                                    5.07%     1 S             -13.814  2.00     4 C
                                   -4.43%     2 S              12.782  0.00     4 C
                                    4.23%     2 S              10.964  0.00     5 H
                                    3.31%     1 P:z            -5.600  0.67     1 C
                                    3.29%     2 S              10.964  0.00    11 H
                                    1.74%     2 S              10.964  0.00     6 H
                                    1.68%     2 S              10.964  0.00     9 H
                                    1.01%     2 S              10.964  0.00     8 H



 =======================================================================
 Electrostatic potential at the Nuclei due to electrons and other nuclei
 =======================================================================
  
         Atom                  Potential
         ----                  ---------
     1)   C                  14.71303654
     2)   C                  14.71897528
     3)   C                  14.71898389
     4)   C                  14.71815568
     5)   H                   1.08564722
     6)   H                   1.09184086
     7)   H                   1.09040797
     8)   H                   1.09150749
     9)   H                   1.09070992
    10)   H                   1.09055809
    11)   H                   1.08895893
    12)   H                   1.08058037


 ========================
 No memory problems found
 ========================

 Maximum number of active allocate calls:         720

 *******************************************************************************

                             A D F   E X I T
 NORMAL TERMINATION



 =================
 Timing Statistics
 =================
  
 Total Used :                     CPU=        5.56      System=        0.14     Elapsed=        6.49

 Calls  Section                     ( Mean, Percentage )
 ---------------------------------------------------------------------------------------------------
     3  ><      ................      0.00    0.06             0.00    0.24             0.00    0.06
     1  INIT    ................      0.39    7.04             0.01    6.04             1.02   15.73
     1  GEOMET  ................      0.03    0.50             0.00    2.85             0.04    0.57
     1  FRAGM   ................      0.01    0.19             0.00    1.66             0.01    0.21
     1  INPUTA  ................      0.00    0.04             0.00    0.01             0.00    0.03
     1  ATDEN   ................      0.00    0.04             0.00    0.83             0.00    0.06
     1  MAINSY  ................      0.02    0.32             0.00    1.76             0.02    0.32
     1  SYMFIT  ................      0.00    0.09             0.00    0.24             0.01    0.08
     1  CORORT  ................      0.00    0.04             0.00    0.11             0.00    0.04
     1  SYMORB  ................      0.00    0.07             0.00    0.31             0.00    0.07
     1  CLSMAT  ................      0.01    0.14             0.00    0.38             0.01    0.13
     1  ORTHON  ................      0.01    0.12             0.00    0.50             0.01    0.12
     1  GENPT   ................      0.09    1.70             0.01    5.84             0.11    1.63
     1  PTBAS   ................      0.08    1.50             0.01    3.77             0.09    1.39
    11  FOCKY   ................      0.27   52.87             0.00   36.15             0.27   46.40
    11  FOCKTR  ................      0.00    0.24             0.00    1.08             0.00    0.24
    11  SDIIS   ................      0.00    0.55             0.00    2.05             0.00    0.59
     1  COREPS  ................      0.48    8.55             0.01    4.60             0.48    7.47
     1  TOTEN   ................      1.38   24.82             0.03   23.42             1.49   22.98
     1  POPAN   ................      0.01    0.09             0.00    0.78             0.01    0.10
     1  DEBYE   ................      0.00    0.07             0.00    0.16             0.00    0.06
     1  INPUTE  ................      0.00    0.01             0.00    0.04             0.00    0.01
     1  SYMORE  ................      0.00    0.02             0.00    0.05             0.00    0.02
     1  METS    ................      0.00    0.01             0.00    0.17             0.00    0.02
     1  CETS    ................      0.01    0.13             0.00    0.21             0.01    0.12
     1  ELNRGY  ................      0.01    0.22             0.00    0.21             0.01    0.20
     1  POPUL   ................      0.01    0.19             0.00    1.09             0.01    0.19
     1  EXIT PROCEDURE .........      0.02    0.35             0.01    5.45             0.08    1.17


 Currently Open Files (EXIT00)
 ====================

 Unit    Access Format  Status   Type       Ident (file)
 -------------------------------------------------------
   3      SEQ    FORM   TRANSP  NORMAL      LOGFILE
                                          ( /Users/arnofoerster/Documents/teaching /Fortran_WT19/mm_structures/c4_cyclic.logfile )
